{"formula": "LiH", "spacegroup": "Fm-3m", "formation_energy_per_atom": -0.482520472643333, "crystal": {"@module": "pymatgen.core.structure", "@class": "Structure", "charge": null, "lattice": {"matrix": [[0.0, 2.000087, 2.000087], [2.000087, 0.0, 2.000087], [2.000087, 2.000087, 0.0]], "a": 2.828550161326117, "b": 2.828550161326117, "c": 2.828550161326117, "alpha": 60.00000000000001, "beta": 60.00000000000001, "gamma": 60.00000000000001, "volume": 16.002088090829318}, "sites": [{"species": [{"element": "Li", "occu": 1}], "abc": [0.0, 0.0, 0.0], "xyz": [0.0, 0.0, 0.0], "label": "Li", "properties": {"magmom": -0.0}}, {"species": [{"element": "H", "occu": 1}], "abc": [0.5, 0.5, 0.5], "xyz": [2.000087, 2.000087, 2.000087], "label": "H", "properties": {"magmom": -0.0}}]}}
{"formula": "BeH2", "spacegroup": "Ibam", "formation_energy_per_atom": -0.14915786185777768, "crystal": {"@module": "pymatgen.core.structure", "@class": "Structure", "charge": null, "lattice": {"matrix": [[-2.022947, 3.794402, 4.431499], [2.022947, -3.794402, 4.431499], [2.022947, 3.794402, -4.431499]], "a": 6.174786189773212, "b": 6.174786189773212, "c": 6.174786189773212, "alpha": 141.7519506146284, "beta": 104.1689000090712, "gamma": 88.27403910047619, "volume": 136.06251434989724}, "sites": [{"species": [{"element": "Be", "occu": 1}], "abc": [0.25, 0.0, 0.25], "xyz": [0.0, 1.897201, 0.0], "label": "Be", "properties": {"magmom": 0.0}}, {"species": [{"element": "Be", "occu": 1}], "abc": [0.75, 0.0, 0.75], "xyz": [0.0, 5.691603, 0.0], "label": "Be", "properties": {"magmom": 0.0}}, {"species": [{"element": "Be", "occu": 1}], "abc": [0.167834, 0.288603, 0.120769], "xyz": [0.48861857248600005, 5.551115123125783e-17, 1.487512406332], "label": "Be", "properties": {"magmom": -0.0}}, {"species": [{"element": "Be", "occu": 1}], "abc": [0.667834, 0.047065, 0.379231], "xyz": [-0.48861857248600005, 3.794402, 1.4875124063320004], "label": "Be", "properties": {"magmom": -0.0}}, {"species": [{"element": "Be", "occu": 1}], "abc": [0.332166, 0.952935, 0.620769], "xyz": [2.511565572486, 0.0, 2.9439865936679994], "label": "Be", "properties": {"magmom": -0.0}}, {"species": [{"element": "Be", "occu": 1}], "abc": [0.832166, 0.711397, 0.879231], "xyz": [1.534328427514, 3.794402, 2.943986593667999], "label": "Be", "properties": {"magmom": -0.0}}, {"species": [{"element": "H", "occu": 1}], "abc": [0.564262, 0.144738, 0.886731], "xyz": [0.9451349990290001, 4.95645658451, -0.7876147487689997], "label": "H", "properties": {"magmom": -0.0}}, {"species": [{"element": "H", "occu": 1}], "abc": [0.258006, 0.144738, 0.580476], "xyz": [0.945137021976, 2.632343621088, -0.7876191802679997], "label": "H", "properties": {"magmom": -0.0}}, {"species": [{"element": "H", "occu": 1}], "abc": [0.758006, 0.677531, 0.613269], "xyz": [1.0778140239179999, 2.632343621088, 3.6438798197319997], "label": "H", "properties": {"magmom": 0.0}}, {"species": [{"element": "H", "occu": 1}], "abc": [0.935738, 0.322469, 0.080476], "xyz": [-1.0778120009709997, 2.63234741549, 5.219113748769], "label": "H", "properties": {"magmom": -0.0}}, {"species": [{"element": "H", "occu": 1}], "abc": [0.684252, 0.414736, 0.730484], "xyz": [0.932513832696, 3.794402, 1.6330251074959992], "label": "H", "properties": {"magmom": -0.0}}, {"species": [{"element": "H", "occu": 1}], "abc": [0.184252, 0.953769, 0.769517], "xyz": [3.1133842131979996, 4.440892098500626e-16, 1.6330251074959992], "label": "H", "properties": {"magmom": -0.0}}, {"species": [{"element": "H", "occu": 1}], "abc": [0.315748, 0.585264, 0.269516], "xyz": [1.090433167304, 0.0, 2.7984738925039996], "label": "H", "properties": {"magmom": -0.0}}, {"species": [{"element": "H", "occu": 1}], "abc": [0.815748, 0.046231, 0.230484], "xyz": [-1.090435190251, 3.7944057944020004, 2.7984694610050003], "label": "H", "properties": {"magmom": -0.0}}, {"species": [{"element": "H", "occu": 1}], "abc": [0.064262, 0.677531, 0.919524], "xyz": [3.1007590009709998, 1.1620545845100003, -0.7876147487690006], "label": "H", "properties": {"magmom": -0.0}}, {"species": [{"element": "H", "occu": 1}], "abc": [0.241994, 0.322469, 0.386731], "xyz": [0.945132976082, 1.1620583789119998, 0.7876191802679999], "label": "H", "properties": {"magmom": 0.0}}, {"species": [{"element": "H", "occu": 1}], "abc": [0.741994, 0.855262, 0.419524], "xyz": [1.0778099780239998, 1.1620583789120003, 5.219118180268], "label": "H", "properties": {"magmom": -0.0}}, {"species": [{"element": "H", "occu": 1}], "abc": [0.435738, 0.855262, 0.113269], "xyz": [1.077812000971, -1.1620545845099999, 5.219113748768999], "label": "H", "properties": {"magmom": -0.0}}]}}
