{"formula": "LiBeBO3", "spacegroup": "P-1", "formation_energy_per_atom": -2.865970321458333, "crystal": {"@module": "pymatgen.core.structure", "@class": "Structure", "charge": null, "lattice": {"matrix": [[4.637602, 0.0, 0.0], [2.270963, 4.122615, 0.0], [1.795878, 1.576697, 5.510993]], "a": 4.637602, "b": 4.7067215113700955, "c": 6.006845683613156, "alpha": 68.02752929920565, "beta": 72.60413714465548, "gamma": 61.15161008620544, "volume": 105.36493732069354}, "sites": [{"species": [{"element": "Li", "occu": 1}], "abc": [0.743578, 0.13277, 0.66196], "xyz": [4.938733978346, 1.5910699396699999, 3.64805692628], "label": "Li", "properties": {"magmom": -0.0}}, {"species": [{"element": "Li", "occu": 1}], "abc": [0.256422, 0.86723, 0.33804], "xyz": [3.7657090216539997, 4.108242060329999, 1.86293607372], "label": "Li", "properties": {"magmom": -0.0}}, {"species": [{"element": "Be", "occu": 1}], "abc": [0.355919, 0.726001, 0.845878], "xyz": [4.818425766085, 4.326715917581, 4.661627736854], "label": "Be", "properties": {"magmom": 0.0}}, {"species": [{"element": "Be", "occu": 1}], "abc": [0.644081, 0.273999, 0.154122], "xyz": [3.8860172339150005, 1.3725960824189998, 0.849365263146], "label": "Be", "properties": {"magmom": 0.0}}, {"species": [{"element": "B", "occu": 1}], "abc": [0.070534, 0.400587, 0.772218], "xyz": [2.623636192153, 2.869019778951, 4.255687992474], "label": "B", "properties": {"magmom": 0.0}}, {"species": [{"element": "B", "occu": 1}], "abc": [0.929466, 0.599413, 0.227782], "xyz": [6.080806807847001, 2.830292221049, 1.2553050075260002], "label": "B", "properties": {"magmom": 0.0}}, {"species": [{"element": "O", "occu": 1}], "abc": [0.327776, 0.097712, 0.761344], "xyz": [3.1092759098400005, 1.603237757648, 4.195761454592001], "label": "O", "properties": {"magmom": 0.0}}, {"species": [{"element": "O", "occu": 1}], "abc": [0.672224, 0.902288, 0.238656], "xyz": [5.59516709016, 4.096074242352, 1.3152315454080001], "label": "O", "properties": {"magmom": 0.0}}, {"species": [{"element": "O", "occu": 1}], "abc": [0.126557, 0.687149, 0.708795], "xyz": [3.420320297811, 3.9504057247499995, 3.906164283435], "label": "O", "properties": {"magmom": 0.0}}, {"species": [{"element": "O", "occu": 1}], "abc": [0.873443, 0.312851, 0.291205], "xyz": [5.284122702189, 1.74890627525, 1.604828716565], "label": "O", "properties": {"magmom": 0.0}}, {"species": [{"element": "O", "occu": 1}], "abc": [0.743055, 0.421849, 0.845512], "xyz": [5.922433224233, 3.072237248999, 4.659610713416], "label": "O", "properties": {"magmom": -0.0}}, {"species": [{"element": "O", "occu": 1}], "abc": [0.256945, 0.578151, 0.154488], "xyz": [2.782009775767, 2.627074751001, 0.851382286584], "label": "O", "properties": {"magmom": -0.0}}]}}
{"formula": "Li14Be6(BO3)9", "spacegroup": "P6_3/m", "formation_energy_per_atom": -2.7621071878050603, "crystal": {"@module": "pymatgen.core.structure", "@class": "Structure", "charge": null, "lattice": {"matrix": [[3.914479, -6.780077, 0.0], [3.914479, 6.780077, 0.0], [0.0, 0.0, 19.139566]], "a": 7.8289584216145895, "b": 7.8289584216145895, "c": 19.139566, "alpha": 90.0, "beta": 90.0, "gamma": 120.00000356290006, "volume": 1015.946117528199}, "sites": [{"species": [{"element": "Li", "occu": 1}], "abc": [0.697644, 0.023514, 0.83051], "xyz": [2.8229578466820002, -4.570653308010001, 15.895600958659998], "label": "Li", "properties": {"magmom": 0.0}}, {"species": [{"element": "Li", "occu": 1}], "abc": [0.302356, 0.976486, 0.16949], "xyz": [5.006000153318, 4.57065330801, 3.2439650413399996], "label": "Li", "properties": {"magmom": 0.0}}, {"species": [{"element": "Li", "occu": 1}], "abc": [0.32587, 0.302356, 0.83051], "xyz": [2.459177484254, -0.15942673057799991, 15.895600958659998], "label": "Li", "properties": {"magmom": 0.001}}, {"species": [{"element": "Li", "occu": 1}], "abc": [0.302356, 0.976486, 0.33051], "xyz": [5.006000153318, 4.57065330801, 6.32581795866], "label": "Li", "properties": {"magmom": 0.0}}, {"species": [{"element": "Li", "occu": 1}], "abc": [0.67413, 0.697644, 0.16949], "xyz": [5.369780515746, 0.15942673057799983, 3.2439650413399996], "label": "Li", "properties": {"magmom": 0.001}}, {"species": [{"element": "Li", "occu": 1}], "abc": [0.697644, 0.023514, 0.66949], "xyz": [2.8229578466820002, -4.570653308010001, 12.81374804134], "label": "Li", "properties": {"magmom": 0.0}}, {"species": [{"element": "Li", "occu": 1}], "abc": [0.976486, 0.67413, 0.83051], "xyz": [6.4613016690639995, -2.0499969614119995, 15.895600958659998], "label": "Li", "properties": {"magmom": 0.001}}, {"species": [{"element": "Li", "occu": 1}], "abc": [0.67413, 0.697644, 0.33051], "xyz": [5.369780515746, 0.15942673057799983, 6.32581795866], "label": "Li", "properties": {"magmom": 0.001}}, {"species": [{"element": "Li", "occu": 1}], "abc": [0.023514, 0.32587, 0.16949], "xyz": [1.367656330936, 2.049996961412, 3.2439650413399996], "label": "Li", "properties": {"magmom": 0.0}}, {"species": [{"element": "Li", "occu": 1}], "abc": [0.32587, 0.302356, 0.66949], "xyz": [2.459177484254, -0.15942673057799991, 12.81374804134], "label": "Li", "properties": {"magmom": 0.001}}, {"species": [{"element": "Li", "occu": 1}], "abc": [0.023514, 0.32587, 0.33051], "xyz": [1.367656330936, 2.049996961412, 6.32581795866], "label": "Li", "properties": {"magmom": 0.0}}, {"species": [{"element": "Li", "occu": 1}], "abc": [0.976486, 0.67413, 0.66949], "xyz": [6.4613016690639995, -2.0499969614119995, 12.81374804134], "label": "Li", "properties": {"magmom": 0.0}}, {"species": [{"element": "Li", "occu": 1}], "abc": [0.666667, 0.333333, 0.75], "xyz": [3.914479, -2.260030186718, 14.354674499999998], "label": "Li", "properties": {"magmom": -0.001}}, {"species": [{"element": "Li", "occu": 1}], "abc": [0.333333, 0.666667, 0.25], "xyz": [3.914479, 2.2600301867180006, 4.7848915], "label": "Li", "properties": {"magmom": -0.001}}, {"species": [{"element": "Li", "occu": 1}], "abc": [0.333333, 0.666667, 0.75], "xyz": [3.914479, 2.2600301867180006, 14.354674499999998], "label": "Li", "properties": {"magmom": -0.001}}, {"species": [{"element": "Li", "occu": 1}], "abc": [0.666667, 0.333333, 0.25], "xyz": [3.914479, -2.260030186718, 4.7848915], "label": "Li", "properties": {"magmom": -0.001}}, {"species": [{"element": "Li", "occu": 1}], "abc": [0.676424, 0.027644, 0.964018], "xyz": [2.756059400572, -4.39877835606, 18.450886136188], "label": "Li", "properties": {"magmom": 0.0}}, {"species": [{"element": "Li", "occu": 1}], "abc": [0.323576, 0.972356, 0.035982], "xyz": [5.072898599428, 4.39877835606, 0.688679863812], "label": "Li", "properties": {"magmom": 0.0}}, {"species": [{"element": "Li", "occu": 1}], "abc": [0.35122, 0.323576, 0.964018], "xyz": [2.641474771284, -0.18742844858800017, 18.450886136188], "label": "Li", "properties": {"magmom": 0.0}}, {"species": [{"element": "Li", "occu": 1}], "abc": [0.323576, 0.972356, 0.464018], "xyz": [5.072898599428, 4.39877835606, 8.881103136187999], "label": "Li", "properties": {"magmom": 0.0}}, {"species": [{"element": "Li", "occu": 1}], "abc": [0.64878, 0.676424, 0.035982], "xyz": [5.187483228716, 0.18742844858800017, 0.688679863812], "label": "Li", "properties": {"magmom": 0.0}}, {"species": [{"element": "Li", "occu": 1}], "abc": [0.676424, 0.027644, 0.535982], "xyz": [2.756059400572, -4.39877835606, 10.258462863811998], "label": "Li", "properties": {"magmom": 0.0}}, {"species": [{"element": "Li", "occu": 1}], "abc": [0.972356, 0.64878, 0.964018], "xyz": [6.345902828144, -2.193870195352, 18.450886136188], "label": "Li", "properties": {"magmom": 0.0}}, {"species": [{"element": "Li", "occu": 1}], "abc": [0.64878, 0.676424, 0.464018], "xyz": [5.187483228716, 0.18742844858800017, 8.881103136187999], "label": "Li", "properties": {"magmom": 0.0}}, {"species": [{"element": "Li", "occu": 1}], "abc": [0.027644, 0.35122, 0.035982], "xyz": [1.4830551718559999, 2.193870195352, 0.688679863812], "label": "Li", "properties": {"magmom": 0.0}}, {"species": [{"element": "Li", "occu": 1}], "abc": [0.35122, 0.323576, 0.535982], "xyz": [2.641474771284, -0.18742844858800017, 10.258462863811998], "label": "Li", "properties": {"magmom": 0.0}}, {"species": [{"element": "Li", "occu": 1}], "abc": [0.027644, 0.35122, 0.464018], "xyz": [1.4830551718559999, 2.193870195352, 8.881103136187999], "label": "Li", "properties": {"magmom": 0.0}}, {"species": [{"element": "Li", "occu": 1}], "abc": [0.972356, 0.64878, 0.535982], "xyz": [6.345902828144, -2.193870195352, 10.258462863811998], "label": "Li", "properties": {"magmom": 0.0}}, {"species": [{"element": "Be", "occu": 1}], "abc": [0.650156, 0.675402, 0.889408], "xyz": [5.1888689542819995, 0.17116982394200025, 17.022883116928], "label": "Be", "properties": {"magmom": 0.001}}, {"species": [{"element": "Be", "occu": 1}], "abc": [0.349844, 0.324598, 0.110592], "xyz": [2.640089045718, -0.17116982394199975, 2.116682883072], "label": "Be", "properties": {"magmom": 0.001}}, {"species": [{"element": "Be", "occu": 1}], "abc": [0.025246, 0.349844, 0.889408], "xyz": [1.46828192811, 2.200799434046, 17.022883116928], "label": "Be", "properties": {"magmom": 0.0}}, {"species": [{"element": "Be", "occu": 1}], "abc": [0.349844, 0.324598, 0.389407], "xyz": [2.640089045718, -0.17116982394199975, 7.453080977361999], "label": "Be", "properties": {"magmom": 0.001}}, {"species": [{"element": "Be", "occu": 1}], "abc": [0.974754, 0.650156, 0.110592], "xyz": [6.3606760718899995, -2.2007994340460004, 2.116682883072], "label": "Be", "properties": {"magmom": 0.0}}, {"species": [{"element": "Be", "occu": 1}], "abc": [0.650156, 0.675402, 0.610592], "xyz": [5.1888689542819995, 0.17116982394200025, 11.686465883072], "label": "Be", "properties": {"magmom": 0.001}}, {"species": [{"element": "Be", "occu": 1}], "abc": [0.324598, 0.974754, 0.889408], "xyz": [5.086286117608, 4.4081077420120005, 17.022883116928], "label": "Be", "properties": {"magmom": 0.001}}, {"species": [{"element": "Be", "occu": 1}], "abc": [0.974754, 0.650156, 0.389407], "xyz": [6.3606760718899995, -2.2007994340460004, 7.453080977361999], "label": "Be", "properties": {"magmom": 0.0}}, {"species": [{"element": "Be", "occu": 1}], "abc": [0.675402, 0.025246, 0.110592], "xyz": [2.742671882392, -4.408107742012, 2.116682883072], "label": "Be", "properties": {"magmom": 0.001}}, {"species": [{"element": "Be", "occu": 1}], "abc": [0.025246, 0.349844, 0.610592], "xyz": [1.46828192811, 2.200799434046, 11.686465883072], "label": "Be", "properties": {"magmom": 0.0}}, {"species": [{"element": "Be", "occu": 1}], "abc": [0.675402, 0.025246, 0.389407], "xyz": [2.742671882392, -4.408107742012, 7.453080977361999], "label": "Be", "properties": {"magmom": 0.001}}, {"species": [{"element": "Be", "occu": 1}], "abc": [0.324598, 0.974754, 0.610592], "xyz": [5.086286117608, 4.4081077420120005, 11.686465883072], "label": "Be", "properties": {"magmom": 0.001}}, {"species": [{"element": "B", "occu": 1}], "abc": [0.666667, 0.333333, 0.892832], "xyz": [3.914479, -2.260030186718, 17.088416990912], "label": "B", "properties": {"magmom": -0.001}}, {"species": [{"element": "B", "occu": 1}], "abc": [0.333333, 0.666667, 0.107168], "xyz": [3.914479, 2.2600301867180006, 2.051149009088], "label": "B", "properties": {"magmom": -0.001}}, {"species": [{"element": "B", "occu": 1}], "abc": [0.333333, 0.666667, 0.392832], "xyz": [3.914479, 2.2600301867180006, 7.518633990912], "label": "B", "properties": {"magmom": -0.001}}, {"species": [{"element": "B", "occu": 1}], "abc": [0.666667, 0.333333, 0.607168], "xyz": [3.914479, -2.260030186718, 11.620932009088], "label": "B", "properties": {"magmom": -0.001}}, {"species": [{"element": "B", "occu": 1}], "abc": [0.0, 0.0, 0.907079], "xyz": [0.0, 0.0, 17.361098387713998], "label": "B", "properties": {"magmom": -0.001}}, {"species": [{"element": "B", "occu": 1}], "abc": [0.0, 0.0, 0.092921], "xyz": [0.0, 0.0, 1.778467612286], "label": "B", "properties": {"magmom": -0.001}}, {"species": [{"element": "B", "occu": 1}], "abc": [0.0, 0.0, 0.407079], "xyz": [0.0, 0.0, 7.791315387714], "label": "B", "properties": {"magmom": -0.001}}, {"species": [{"element": "B", "occu": 1}], "abc": [0.0, 0.0, 0.592921], "xyz": [0.0, 0.0, 11.348250612286], "label": "B", "properties": {"magmom": -0.001}}, {"species": [{"element": "B", "occu": 1}], "abc": [0.677584, 0.699185, 0.75], "xyz": [5.389333338350999, 0.14645644327699991, 14.354674499999998], "label": "B", "properties": {"magmom": -0.005}}, {"species": [{"element": "B", "occu": 1}], "abc": [0.322416, 0.300815, 0.25], "xyz": [2.439624661649, -0.14645644327699983, 4.7848915], "label": "B", "properties": {"magmom": -0.005}}, {"species": [{"element": "B", "occu": 1}], "abc": [0.021601, 0.322416, 0.75], "xyz": [1.346647322143, 2.039548862755, 14.354674499999998], "label": "B", "properties": {"magmom": -0.006}}, {"species": [{"element": "B", "occu": 1}], "abc": [0.978399, 0.677584, 0.25], "xyz": [6.482310677857, -2.0395488627550007, 4.7848915], "label": "B", "properties": {"magmom": -0.006}}, {"species": [{"element": "B", "occu": 1}], "abc": [0.300815, 0.978399, 0.75], "xyz": [5.0074563395060006, 4.594071693968, 14.354674499999998], "label": "B", "properties": {"magmom": -0.005}}, {"species": [{"element": "B", "occu": 1}], "abc": [0.699185, 0.021601, 0.25], "xyz": [2.821501660494, -4.594071693968, 4.7848915], "label": "B", "properties": {"magmom": -0.005}}, {"species": [{"element": "B", "occu": 1}], "abc": [0.666667, 0.333333, 0.448625], "xyz": [3.914479, -2.260030186718, 8.58648779675], "label": "B", "properties": {"magmom": -0.001}}, {"species": [{"element": "B", "occu": 1}], "abc": [0.333333, 0.666667, 0.551375], "xyz": [3.914479, 2.2600301867180006, 10.553078203249997], "label": "B", "properties": {"magmom": -0.001}}, {"species": [{"element": "B", "occu": 1}], "abc": [0.333333, 0.666667, 0.948625], "xyz": [3.914479, 2.2600301867180006, 18.15627079675], "label": "B", "properties": {"magmom": -0.001}}, {"species": [{"element": "B", "occu": 1}], "abc": [0.666667, 0.333333, 0.051375], "xyz": [3.914479, -2.260030186718, 0.9832952032499999], "label": "B", "properties": {"magmom": -0.001}}, {"species": [{"element": "O", "occu": 1}], "abc": [0.821047, 0.200303, 0.75], "xyz": [3.99805312665, -4.208692117288001, 14.354674499999998], "label": "O", "properties": {"magmom": 0.054}}, {"species": [{"element": "O", "occu": 1}], "abc": [0.178953, 0.799697, 0.25], "xyz": [3.83090487335, 4.208692117288, 4.7848915], "label": "O", "properties": {"magmom": 0.054}}, {"species": [{"element": "O", "occu": 1}], "abc": [0.379256, 0.178953, 0.75], "xyz": [2.185097408111, -1.358069763331, 14.354674499999998], "label": "O", "properties": {"magmom": 0.093}}, {"species": [{"element": "O", "occu": 1}], "abc": [0.620744, 0.821047, 0.25], "xyz": [5.643860591888999, 1.3580697633310002, 4.7848915], "label": "O", "properties": {"magmom": 0.093}}, {"species": [{"element": "O", "occu": 1}], "abc": [0.799697, 0.620744, 0.75], "xyz": [5.560286465239, -1.2133151193810008, 14.354674499999998], "label": "O", "properties": {"magmom": 0.091}}, {"species": [{"element": "O", "occu": 1}], "abc": [0.200303, 0.379256, 0.25], "xyz": [2.268671534761, 1.213315119381, 4.7848915], "label": "O", "properties": {"magmom": 0.091}}, {"species": [{"element": "O", "occu": 1}], "abc": [0.910581, 0.113695, 0.90665], "xyz": [4.0095068922040005, -5.4029484402220005, 17.352887513899997], "label": "O", "properties": {"magmom": 0.008}}, {"species": [{"element": "O", "occu": 1}], "abc": [0.089419, 0.886305, 0.09335], "xyz": [3.819451107796, 5.4029484402220005, 1.7866784861], "label": "O", "properties": {"magmom": 0.008}}, {"species": [{"element": "O", "occu": 1}], "abc": [0.203114, 0.089419, 0.90665], "xyz": [1.145114285307, -0.7708608545150001, 17.352887513899997], "label": "O", "properties": {"magmom": 0.014}}, {"species": [{"element": "O", "occu": 1}], "abc": [0.089419, 0.886305, 0.40665], "xyz": [3.819451107796, 5.4029484402220005, 7.7831045139], "label": "O", "properties": {"magmom": 0.008}}, {"species": [{"element": "O", "occu": 1}], "abc": [0.796886, 0.910581, 0.09335], "xyz": [6.683843714692999, 0.7708608545149996, 1.7866784861], "label": "O", "properties": {"magmom": 0.014}}, {"species": [{"element": "O", "occu": 1}], "abc": [0.910581, 0.113695, 0.59335], "xyz": [4.0095068922040005, -5.4029484402220005, 11.3564614861], "label": "O", "properties": {"magmom": 0.008}}, {"species": [{"element": "O", "occu": 1}], "abc": [0.886305, 0.796886, 0.90665], "xyz": [6.588815822489, -0.6062677052630002, 17.352887513899997], "label": "O", "properties": {"magmom": 0.013}}, {"species": [{"element": "O", "occu": 1}], "abc": [0.796886, 0.910581, 0.40665], "xyz": [6.683843714692999, 0.7708608545149996, 7.7831045139], "label": "O", "properties": {"magmom": 0.014}}, {"species": [{"element": "O", "occu": 1}], "abc": [0.113695, 0.203114, 0.09335], "xyz": [1.240142177511, 0.6062677052629999, 1.7866784861], "label": "O", "properties": {"magmom": 0.013}}, {"species": [{"element": "O", "occu": 1}], "abc": [0.203114, 0.089419, 0.59335], "xyz": [1.145114285307, -0.7708608545150001, 11.3564614861], "label": "O", "properties": {"magmom": 0.014}}, {"species": [{"element": "O", "occu": 1}], "abc": [0.113695, 0.203114, 0.40665], "xyz": [1.240142177511, 0.6062677052629999, 7.7831045139], "label": "O", "properties": {"magmom": 0.013}}, {"species": [{"element": "O", "occu": 1}], "abc": [0.886305, 0.796886, 0.59335], "xyz": [6.588815822489, -0.6062677052630002, 11.3564614861], "label": "O", "properties": {"magmom": 0.013}}, {"species": [{"element": "O", "occu": 1}], "abc": [0.607976, 0.738657, 0.811517], "xyz": [5.271366599207, 0.886027242437, 15.532083181622], "label": "O", "properties": {"magmom": 0.068}}, {"species": [{"element": "O", "occu": 1}], "abc": [0.392024, 0.261343, 0.188483], "xyz": [2.5575914007929996, -0.886027242437, 3.607482818378], "label": "O", "properties": {"magmom": 0.068}}, {"species": [{"element": "O", "occu": 1}], "abc": [0.130681, 0.392024, 0.811517], "xyz": [2.0461177456949997, 1.7719256634109999, 15.532083181622], "label": "O", "properties": {"magmom": 0.042}}, {"species": [{"element": "O", "occu": 1}], "abc": [0.392024, 0.261343, 0.311517], "xyz": [2.5575914007929996, -0.886027242437, 5.962300181621999], "label": "O", "properties": {"magmom": 0.068}}, {"species": [{"element": "O", "occu": 1}], "abc": [0.869319, 0.607976, 0.188483], "xyz": [5.7828402543049995, -1.7719256634109999, 3.607482818378], "label": "O", "properties": {"magmom": 0.042}}, {"species": [{"element": "O", "occu": 1}], "abc": [0.607976, 0.738657, 0.688483], "xyz": [5.271366599207, 0.886027242437, 13.177265818377998], "label": "O", "properties": {"magmom": 0.068}}, {"species": [{"element": "O", "occu": 1}], "abc": [0.261343, 0.869319, 0.811517], "xyz": [4.4259526550979995, 4.122124094152, 15.532083181622], "label": "O", "properties": {"magmom": 0.067}}, {"species": [{"element": "O", "occu": 1}], "abc": [0.869319, 0.607976, 0.311517], "xyz": [5.7828402543049995, -1.7719256634109999, 5.962300181621999], "label": "O", "properties": {"magmom": 0.042}}, {"species": [{"element": "O", "occu": 1}], "abc": [0.738657, 0.130681, 0.188483], "xyz": [3.403005344902, -4.122124094152, 3.607482818378], "label": "O", "properties": {"magmom": 0.067}}, {"species": [{"element": "O", "occu": 1}], "abc": [0.130681, 0.392024, 0.688483], "xyz": [2.0461177456949997, 1.7719256634109999, 13.177265818377998], "label": "O", "properties": {"magmom": 0.042}}, {"species": [{"element": "O", "occu": 1}], "abc": [0.738657, 0.130681, 0.311517], "xyz": [3.403005344902, -4.122124094152, 5.962300181621999], "label": "O", "properties": {"magmom": 0.067}}, {"species": [{"element": "O", "occu": 1}], "abc": [0.261343, 0.869319, 0.688483], "xyz": [4.4259526550979995, 4.122124094152, 13.177265818377998], "label": "O", "properties": {"magmom": 0.067}}, {"species": [{"element": "O", "occu": 1}], "abc": [0.87113, 0.432449, 0.892305], "xyz": [5.102832620341, -2.974290958437, 17.078330439629998], "label": "O", "properties": {"magmom": 0.014}}, {"species": [{"element": "O", "occu": 1}], "abc": [0.12887, 0.567551, 0.107695], "xyz": [2.7261253796590004, 2.9742909584370003, 2.0612355603699997], "label": "O", "properties": {"magmom": 0.014}}, {"species": [{"element": "O", "occu": 1}], "abc": [0.561319, 0.12887, 0.892305], "xyz": [2.7017303465310003, -2.9320375185730003, 17.078330439629998], "label": "O", "properties": {"magmom": 0.007}}, {"species": [{"element": "O", "occu": 1}], "abc": [0.12887, 0.567551, 0.392305], "xyz": [2.7261253796590004, 2.9742909584370003, 7.50854743963], "label": "O", "properties": {"magmom": 0.014}}, {"species": [{"element": "O", "occu": 1}], "abc": [0.438681, 0.87113, 0.107695], "xyz": [5.127227653469, 2.9320375185730003, 2.0612355603699997], "label": "O", "properties": {"magmom": 0.007}}, {"species": [{"element": "O", "occu": 1}], "abc": [0.87113, 0.432449, 0.607695], "xyz": [5.102832620341, -2.974290958437, 11.631018560369998], "label": "O", "properties": {"magmom": 0.014}}, {"species": [{"element": "O", "occu": 1}], "abc": [0.567551, 0.438681, 0.892305], "xyz": [3.938874033128, -0.8737485229900004, 17.078330439629998], "label": "O", "properties": {"magmom": 0.007}}, {"species": [{"element": "O", "occu": 1}], "abc": [0.438681, 0.87113, 0.392305], "xyz": [5.127227653469, 2.9320375185730003, 7.50854743963], "label": "O", "properties": {"magmom": 0.007}}, {"species": [{"element": "O", "occu": 1}], "abc": [0.432449, 0.561319, 0.107695], "xyz": [3.890083966872, 0.8737485229900004, 2.0612355603699997], "label": "O", "properties": {"magmom": 0.007}}, {"species": [{"element": "O", "occu": 1}], "abc": [0.561319, 0.12887, 0.607695], "xyz": [2.7017303465310003, -2.9320375185730003, 11.631018560369998], "label": "O", "properties": {"magmom": 0.007}}, {"species": [{"element": "O", "occu": 1}], "abc": [0.432449, 0.561319, 0.392305], "xyz": [3.890083966872, 0.8737485229900004, 7.50854743963], "label": "O", "properties": {"magmom": 0.007}}, {"species": [{"element": "O", "occu": 1}], "abc": [0.567551, 0.438681, 0.607695], "xyz": [3.938874033128, -0.8737485229900004, 11.631018560369998], "label": "O", "properties": {"magmom": 0.007}}, {"species": [{"element": "O", "occu": 1}], "abc": [0.534411, 0.733231, 0.949779], "xyz": [4.962157988517999, 1.34801490914, 18.178357855914], "label": "O", "properties": {"magmom": 0.017}}, {"species": [{"element": "O", "occu": 1}], "abc": [0.465589, 0.266769, 0.050221], "xyz": [2.866800011482, -1.34801490914, 0.961208144086], "label": "O", "properties": {"magmom": 0.017}}, {"species": [{"element": "O", "occu": 1}], "abc": [0.19882, 0.465589, 0.949779], "xyz": [2.6008150779109998, 1.808714361213, 18.178357855914], "label": "O", "properties": {"magmom": 0.024}}, {"species": [{"element": "O", "occu": 1}], "abc": [0.465589, 0.266769, 0.449779], "xyz": [2.866800011482, -1.34801490914, 8.608574855913998], "label": "O", "properties": {"magmom": 0.017}}, {"species": [{"element": "O", "occu": 1}], "abc": [0.80118, 0.534411, 0.050221], "xyz": [5.228142922089, -1.8087143612130006, 0.961208144086], "label": "O", "properties": {"magmom": 0.024}}, {"species": [{"element": "O", "occu": 1}], "abc": [0.534411, 0.733231, 0.550221], "xyz": [4.962157988517999, 1.34801490914, 10.530991144085998], "label": "O", "properties": {"magmom": 0.017}}, {"species": [{"element": "O", "occu": 1}], "abc": [0.266769, 0.80118, 0.949779], "xyz": [4.180463933571, 3.6233477296470005, 18.178357855914], "label": "O", "properties": {"magmom": 0.019}}, {"species": [{"element": "O", "occu": 1}], "abc": [0.80118, 0.534411, 0.449779], "xyz": [5.228142922089, -1.8087143612130006, 8.608574855913998], "label": "O", "properties": {"magmom": 0.024}}, {"species": [{"element": "O", "occu": 1}], "abc": [0.733231, 0.19882, 0.050221], "xyz": [3.648494066429, -3.623347729647, 0.961208144086], "label": "O", "properties": {"magmom": 0.019}}, {"species": [{"element": "O", "occu": 1}], "abc": [0.19882, 0.465589, 0.550221], "xyz": [2.6008150779109998, 1.808714361213, 10.530991144085998], "label": "O", "properties": {"magmom": 0.024}}, {"species": [{"element": "O", "occu": 1}], "abc": [0.733231, 0.19882, 0.449779], "xyz": [3.648494066429, -3.623347729647, 8.608574855913998], "label": "O", "properties": {"magmom": 0.019}}, {"species": [{"element": "O", "occu": 1}], "abc": [0.266769, 0.80118, 0.550221], "xyz": [4.180463933571, 3.6233477296470005, 10.530991144085998], "label": "O", "properties": {"magmom": 0.019}}]}}
