{"formula": "LiBeH3", "spacegroup": "P2_1/c", "formation_energy_per_atom": -0.31611250317199996, "crystal": {"@module": "pymatgen.core.structure", "@class": "Structure", "charge": null, "lattice": {"matrix": [[6.165801, 0.0, 0.0], [0.0, 6.054225, 0.0], [0.0, 1.762263, 13.094134]], "a": 6.165801, "b": 6.054225, "c": 13.212188164385376, "alpha": 82.3349530502496, "beta": 90.0, "gamma": 90.0, "volume": 488.7928471521311}, "sites": [{"species": [{"element": "Li", "occu": 1}], "abc": [0.117779, 0.239264, 0.406844], "xyz": [0.726201875979, 2.165524218372, 5.327269853096], "label": "Li", "properties": {"magmom": -0.0}}, {"species": [{"element": "Li", "occu": 1}], "abc": [0.61901, 0.010488, 0.747726], "xyz": [3.8166924770099997, 1.381186575738, 9.790824439284], "label": "Li", "properties": {"magmom": -0.0}}, {"species": [{"element": "Li", "occu": 1}], "abc": [0.88099, 0.010488, 0.247726], "xyz": [5.43200902299, 0.500055075738, 3.2437574392840003], "label": "Li", "properties": {"magmom": -0.0}}, {"species": [{"element": "Li", "occu": 1}], "abc": [0.127597, 0.747222, 0.10097], "xyz": [0.7867377101969999, 4.70178580806, 1.3221147099800001], "label": "Li", "properties": {"magmom": -0.0}}, {"species": [{"element": "Li", "occu": 1}], "abc": [0.872403, 0.252778, 0.89903], "xyz": [5.379063289803001, 3.11470219194, 11.772019290020001], "label": "Li", "properties": {"magmom": -0.0}}, {"species": [{"element": "Li", "occu": 1}], "abc": [0.11901, 0.989512, 0.752274], "xyz": [0.73379197701, 7.316432924261999, 9.850376560716], "label": "Li", "properties": {"magmom": -0.0}}, {"species": [{"element": "Li", "occu": 1}], "abc": [0.38099, 0.989512, 0.252274], "xyz": [2.34910852299, 6.435301424262, 3.303309560716], "label": "Li", "properties": {"magmom": -0.0}}, {"species": [{"element": "Li", "occu": 1}], "abc": [0.372403, 0.747222, 0.60097], "xyz": [2.296162789803, 5.58291730806, 7.86918170998], "label": "Li", "properties": {"magmom": -0.0}}, {"species": [{"element": "Li", "occu": 1}], "abc": [0.882221, 0.760736, 0.593156], "xyz": [5.439599124021, 5.6509637816280005, 7.766864146904], "label": "Li", "properties": {"magmom": -0.0}}, {"species": [{"element": "Li", "occu": 1}], "abc": [0.627597, 0.252778, 0.39903], "xyz": [3.869638210197, 2.23357069194, 5.22495229002], "label": "Li", "properties": {"magmom": -0.0}}, {"species": [{"element": "Li", "occu": 1}], "abc": [0.382221, 0.239264, 0.906844], "xyz": [2.356698624021, 3.0466557183719996, 11.874336853096], "label": "Li", "properties": {"magmom": -0.0}}, {"species": [{"element": "Li", "occu": 1}], "abc": [0.617779, 0.760736, 0.093156], "xyz": [3.8091023759789997, 4.769832281628, 1.219797146904], "label": "Li", "properties": {"magmom": -0.0}}, {"species": [{"element": "Be", "occu": 1}], "abc": [0.406732, 0.228483, 0.587739], "xyz": [2.507828572332, 2.419038184032, 7.6959332230260005], "label": "Be", "properties": {"magmom": -0.0}}, {"species": [{"element": "Be", "occu": 1}], "abc": [0.165697, 0.775827, 0.408244], "xyz": [1.021654728297, 5.416464515247, 5.3456016406960005], "label": "Be", "properties": {"magmom": 0.0}}, {"species": [{"element": "Be", "occu": 1}], "abc": [0.834303, 0.224173, 0.591756], "xyz": [5.144146271703, 2.400023484753, 7.748532359304], "label": "Be", "properties": {"magmom": 0.0}}, {"species": [{"element": "Be", "occu": 1}], "abc": [0.906732, 0.771517, 0.912261], "xyz": [5.590729072332, 6.278581315968, 11.945267776974001], "label": "Be", "properties": {"magmom": -0.0}}, {"species": [{"element": "Be", "occu": 1}], "abc": [0.334303, 0.775827, 0.908244], "xyz": [2.061245771703, 6.297596015247, 11.892668640696002], "label": "Be", "properties": {"magmom": 0.0}}, {"species": [{"element": "Be", "occu": 1}], "abc": [0.593268, 0.771517, 0.412261], "xyz": [3.657972427668, 5.397449815968001, 5.398200776974], "label": "Be", "properties": {"magmom": -0.0}}, {"species": [{"element": "Be", "occu": 1}], "abc": [0.665697, 0.224173, 0.091756], "xyz": [4.104555228297, 1.518891984753, 1.2014653593040001], "label": "Be", "properties": {"magmom": 0.0}}, {"species": [{"element": "Be", "occu": 1}], "abc": [0.617648, 0.56568, 0.81378], "xyz": [3.808294656048, 4.85884838214, 10.65574436652], "label": "Be", "properties": {"magmom": 0.0}}, {"species": [{"element": "Be", "occu": 1}], "abc": [0.882352, 0.56568, 0.31378], "xyz": [5.440406843952, 3.9777168821399993, 4.10867736652], "label": "Be", "properties": {"magmom": 0.0}}, {"species": [{"element": "Be", "occu": 1}], "abc": [0.093268, 0.228483, 0.087739], "xyz": [0.5750719276680001, 1.537906684032, 1.148866223026], "label": "Be", "properties": {"magmom": -0.0}}, {"species": [{"element": "Be", "occu": 1}], "abc": [0.382352, 0.43432, 0.18622], "xyz": [2.357506343952, 2.95763961786, 2.43838963348], "label": "Be", "properties": {"magmom": 0.0}}, {"species": [{"element": "Be", "occu": 1}], "abc": [0.117648, 0.43432, 0.68622], "xyz": [0.7253941560480001, 3.83877111786, 8.98545663348], "label": "Be", "properties": {"magmom": 0.0}}, {"species": [{"element": "H", "occu": 1}], "abc": [0.116998, 0.292501, 0.781198], "xyz": [0.721386385398, 3.147543197799, 10.229111292532], "label": "H", "properties": {"magmom": -0.0}}, {"species": [{"element": "H", "occu": 1}], "abc": [0.880082, 0.292371, 0.115941], "xyz": [5.426410475682, 1.974398351958, 1.5181469900940001], "label": "H", "properties": {"magmom": 0.0}}, {"species": [{"element": "H", "occu": 1}], "abc": [0.304434, 0.422498, 0.619866], "xyz": [1.8770794616339999, 3.650264870808, 8.116608466044001], "label": "H", "properties": {"magmom": 0.0}}, {"species": [{"element": "H", "occu": 1}], "abc": [0.355792, 0.027204, 0.651546], "xyz": [2.193742669392, 1.3128945454979999, 8.531430631164], "label": "H", "properties": {"magmom": 0.0}}, {"species": [{"element": "H", "occu": 1}], "abc": [0.381309, 0.668409, 0.194023], "xyz": [2.351075413509, 4.3886180320740005, 2.5405631610820003], "label": "H", "properties": {"magmom": -0.0}}, {"species": [{"element": "H", "occu": 1}], "abc": [0.620313, 0.026033, 0.158721], "xyz": [3.824726515713, 0.437317785048, 2.078314042614], "label": "H", "properties": {"magmom": 0.0}}, {"species": [{"element": "H", "occu": 1}], "abc": [0.644208, 0.972796, 0.348454], "xyz": [3.972058330608, 6.503593454501999, 4.562703368836], "label": "H", "properties": {"magmom": 0.0}}, {"species": [{"element": "H", "occu": 1}], "abc": [0.368853, 0.802698, 0.010157], "xyz": [2.2742741962529998, 4.8776136043410006, 0.132997119038], "label": "H", "properties": {"magmom": -0.0}}, {"species": [{"element": "H", "occu": 1}], "abc": [0.618691, 0.331591, 0.805977], "xyz": [3.814725586491, 3.427869967926, 10.553570838918], "label": "H", "properties": {"magmom": -0.0}}, {"species": [{"element": "H", "occu": 1}], "abc": [0.379687, 0.973967, 0.841279], "xyz": [2.341074484287, 7.3791702149519995, 11.015819957386], "label": "H", "properties": {"magmom": 0.0}}, {"species": [{"element": "H", "occu": 1}], "abc": [0.376558, 0.225253, 0.48211], "xyz": [2.321781692958, 2.213336958855, 6.31281294274], "label": "H", "properties": {"magmom": -0.0}}, {"species": [{"element": "H", "occu": 1}], "abc": [0.695566, 0.577502, 0.380134], "xyz": [4.2887215383660005, 4.166223129192, 4.977525533956], "label": "H", "properties": {"magmom": 0.0}}, {"species": [{"element": "H", "occu": 1}], "abc": [0.876558, 0.774747, 0.01789], "xyz": [5.404682192958, 4.722019541144999, 0.23425405726], "label": "H", "properties": {"magmom": -0.0}}, {"species": [{"element": "H", "occu": 1}], "abc": [0.804434, 0.577502, 0.880134], "xyz": [4.959979961634, 5.047354629192, 11.524592533956], "label": "H", "properties": {"magmom": 0.0}}, {"species": [{"element": "H", "occu": 1}], "abc": [0.619918, 0.292371, 0.615941], "xyz": [3.822291024318, 2.855529851958, 8.065213990094], "label": "H", "properties": {"magmom": 0.0}}, {"species": [{"element": "H", "occu": 1}], "abc": [0.564368, 0.424333, 0.117517], "xyz": [3.4797807787679997, 2.776103317896, 1.538783345278], "label": "H", "properties": {"magmom": 0.0}}, {"species": [{"element": "H", "occu": 1}], "abc": [0.616998, 0.707499, 0.718802], "xyz": [3.8042868853980005, 5.550076302201, 9.412089707468], "label": "H", "properties": {"magmom": -0.0}}, {"species": [{"element": "H", "occu": 1}], "abc": [0.435632, 0.575667, 0.882483], "xyz": [2.6860202212320003, 5.040384682104, 11.555350654722], "label": "H", "properties": {"magmom": 0.0}}, {"species": [{"element": "H", "occu": 1}], "abc": [0.144208, 0.027204, 0.151546], "xyz": [0.889157830608, 0.43176304549799993, 1.9843636311639998], "label": "H", "properties": {"magmom": 0.0}}, {"species": [{"element": "H", "occu": 1}], "abc": [0.868853, 0.197302, 0.489843], "xyz": [5.357174696253, 2.057742895659, 6.414069880962], "label": "H", "properties": {"magmom": -0.0}}, {"species": [{"element": "H", "occu": 1}], "abc": [0.380082, 0.707629, 0.384059], "xyz": [2.3435099756819997, 4.960958148041999, 5.028920009906], "label": "H", "properties": {"magmom": 0.0}}, {"species": [{"element": "H", "occu": 1}], "abc": [0.123442, 0.225253, 0.98211], "xyz": [0.761118807042, 3.094468458855, 12.859879942740001], "label": "H", "properties": {"magmom": -0.0}}, {"species": [{"element": "H", "occu": 1}], "abc": [0.118691, 0.668409, 0.694023], "xyz": [0.7318250864910001, 5.269749532074, 9.087630161082], "label": "H", "properties": {"magmom": -0.0}}, {"species": [{"element": "H", "occu": 1}], "abc": [0.883002, 0.707499, 0.218802], "xyz": [5.444414614602, 4.668944802201, 2.865022707468], "label": "H", "properties": {"magmom": -0.0}}, {"species": [{"element": "H", "occu": 1}], "abc": [0.935632, 0.424333, 0.617517], "xyz": [5.768920721232, 3.6572348178959997, 8.085850345278], "label": "H", "properties": {"magmom": 0.0}}, {"species": [{"element": "H", "occu": 1}], "abc": [0.120313, 0.973967, 0.341279], "xyz": [0.741826015713, 6.498038714952, 4.468752957386], "label": "H", "properties": {"magmom": 0.0}}, {"species": [{"element": "H", "occu": 1}], "abc": [0.881309, 0.331591, 0.305977], "xyz": [5.433975913509, 2.546738467926, 4.006503838918], "label": "H", "properties": {"magmom": -0.0}}, {"species": [{"element": "H", "occu": 1}], "abc": [0.131147, 0.802698, 0.510157], "xyz": [0.8086263037470001, 5.758745104341, 6.680064119038], "label": "H", "properties": {"magmom": -0.0}}, {"species": [{"element": "H", "occu": 1}], "abc": [0.855792, 0.972796, 0.848454], "xyz": [5.276643169392, 7.3847249545019995, 11.109770368836001], "label": "H", "properties": {"magmom": 0.0}}, {"species": [{"element": "H", "occu": 1}], "abc": [0.383002, 0.292501, 0.281198], "xyz": [2.361514114602, 2.266411697799, 3.6820442925320003], "label": "H", "properties": {"magmom": -0.0}}, {"species": [{"element": "H", "occu": 1}], "abc": [0.195566, 0.422498, 0.119866], "xyz": [1.205821038366, 2.769133370808, 1.5695414660440001], "label": "H", "properties": {"magmom": 0.0}}, {"species": [{"element": "H", "occu": 1}], "abc": [0.119918, 0.707629, 0.884059], "xyz": [0.739390524318, 5.842089648041999, 11.575987009906001], "label": "H", "properties": {"magmom": 0.0}}, {"species": [{"element": "H", "occu": 1}], "abc": [0.631147, 0.197302, 0.989843], "xyz": [3.8915268037470003, 2.938874395659, 12.961136880962], "label": "H", "properties": {"magmom": -0.0}}, {"species": [{"element": "H", "occu": 1}], "abc": [0.064368, 0.575667, 0.382483], "xyz": [0.39688027876799997, 4.159253182104, 5.008283654722001], "label": "H", "properties": {"magmom": 0.0}}, {"species": [{"element": "H", "occu": 1}], "abc": [0.623442, 0.774747, 0.51789], "xyz": [3.8440193070420006, 5.603151041144999, 6.78132105726], "label": "H", "properties": {"magmom": -0.0}}, {"species": [{"element": "H", "occu": 1}], "abc": [0.879687, 0.026033, 0.658721], "xyz": [5.423974984287, 1.3184492850479999, 8.625381042614], "label": "H", "properties": {"magmom": 0.0}}]}}
{"formula": "LiBeH3", "spacegroup": "P-1", "formation_energy_per_atom": -0.3132645998386664, "crystal": {"@module": "pymatgen.core.structure", "@class": "Structure", "charge": null, "lattice": {"matrix": [[6.050269, 0.0, 0.0], [-0.040538, 6.171939, 0.0], [-0.856479, -1.653919, 6.554844]], "a": 6.050269, "b": 6.172072127670334, "c": 6.814321991243003, "alpha": 103.99761094041949, "beta": 97.2204928551123, "gamma": 90.37631980984781, "volume": 244.7702714914016}, "sites": [{"species": [{"element": "Li", "occu": 1}], "abc": [0.010723, 0.751898, 0.004562], "xyz": [0.030489336165000002, 4.633123411744, 0.029903198328], "label": "Li", "properties": {"magmom": 0.0}}, {"species": [{"element": "Li", "occu": 1}], "abc": [0.989277, 0.248102, 0.995438], "xyz": [5.122762663835, -0.11510341174400018, 6.524940801672001], "label": "Li", "properties": {"magmom": 0.0}}, {"species": [{"element": "Li", "occu": 1}], "abc": [0.746706, 0.073046, 0.29733], "xyz": [4.260154124096, -0.040924280075999964, 1.94895176652], "label": "Li", "properties": {"magmom": -0.0}}, {"species": [{"element": "Li", "occu": 1}], "abc": [0.253294, 0.926954, 0.70267], "xyz": [0.893097875904, 4.558944280076, 4.6058922334800005], "label": "Li", "properties": {"magmom": -0.0}}, {"species": [{"element": "Li", "occu": 1}], "abc": [0.761385, 0.567757, 0.315212], "xyz": [4.3135958707510005, 2.982826454995, 2.066165486928], "label": "Li", "properties": {"magmom": -0.0}}, {"species": [{"element": "Li", "occu": 1}], "abc": [0.238615, 0.432243, 0.684788], "xyz": [0.839656129249, 1.5351935450049998, 4.488678513072], "label": "Li", "properties": {"magmom": -0.0}}, {"species": [{"element": "Be", "occu": 1}], "abc": [0.228058, 0.047381, 0.324787], "xyz": [1.0997182716510001, -0.24473874849399996, 2.128928118228], "label": "Be", "properties": {"magmom": 0.0}}, {"species": [{"element": "Be", "occu": 1}], "abc": [0.771942, 0.952619, 0.675213], "xyz": [4.0535337283490005, 4.762758748494, 4.425915881772], "label": "Be", "properties": {"magmom": 0.0}}, {"species": [{"element": "Be", "occu": 1}], "abc": [0.225065, 0.618036, 0.316491], "xyz": [1.065581953928, 3.2910300135750004, 2.074549132404], "label": "Be", "properties": {"magmom": 0.0}}, {"species": [{"element": "Be", "occu": 1}], "abc": [0.774935, 0.381964, 0.683509], "xyz": [4.087670046072001, 1.2269899864250002, 4.480294867596], "label": "Be", "properties": {"magmom": 0.0}}, {"species": [{"element": "Be", "occu": 1}], "abc": [0.434624, 0.282543, 0.127858], "xyz": [2.5086306937400003, 1.5323713853749998, 0.838089244152], "label": "Be", "properties": {"magmom": 0.0}}, {"species": [{"element": "Be", "occu": 1}], "abc": [0.565376, 0.717457, 0.872142], "xyz": [2.64462130626, 2.985648614625, 5.716754755848], "label": "Be", "properties": {"magmom": 0.0}}, {"species": [{"element": "H", "occu": 1}], "abc": [0.293683, 0.820415, 0.269452], "xyz": [1.5128231879490002, 4.617899552297, 1.7662158254880003], "label": "H", "properties": {"magmom": -0.0}}, {"species": [{"element": "H", "occu": 1}], "abc": [0.706317, 0.179585, 0.730548], "xyz": [3.6404288120509998, -0.09987955229699996, 4.788628174512], "label": "H", "properties": {"magmom": -0.0}}, {"species": [{"element": "H", "occu": 1}], "abc": [0.424212, 0.503639, 0.260675], "xyz": [2.322917531921, 2.6772938506959996, 1.7086839596999999], "label": "H", "properties": {"magmom": -0.0}}, {"species": [{"element": "H", "occu": 1}], "abc": [0.575788, 0.496361, 0.739325], "xyz": [2.830334468079, 1.8407261493040001, 4.8461600403], "label": "H", "properties": {"magmom": -0.0}}, {"species": [{"element": "H", "occu": 1}], "abc": [0.423027, 0.136414, 0.264795], "xyz": [2.327105836726, 0.40398940514100007, 1.73568991698], "label": "H", "properties": {"magmom": -0.0}}, {"species": [{"element": "H", "occu": 1}], "abc": [0.576973, 0.863586, 0.735205], "xyz": [2.826146163274, 4.114030594859, 4.81915408302], "label": "H", "properties": {"magmom": -0.0}}, {"species": [{"element": "H", "occu": 1}], "abc": [0.200047, 0.636665, 0.520386], "xyz": [0.7388293559790001, 3.0687812507010004, 3.4110490497840003], "label": "H", "properties": {"magmom": 0.0}}, {"species": [{"element": "H", "occu": 1}], "abc": [0.799953, 0.363335, 0.479614], "xyz": [4.414422644021, 1.4492387492990004, 3.143794950216], "label": "H", "properties": {"magmom": 0.0}}, {"species": [{"element": "H", "occu": 1}], "abc": [0.221209, 0.133061, 0.53548], "xyz": [0.874352553483, -0.0643961708409998, 3.50998786512], "label": "H", "properties": {"magmom": 0.0}}, {"species": [{"element": "H", "occu": 1}], "abc": [0.778791, 0.866939, 0.46452], "xyz": [4.278899446517, 4.582416170841, 3.04485613488], "label": "H", "properties": {"magmom": 0.0}}, {"species": [{"element": "H", "occu": 1}], "abc": [0.025988, 0.537322, 0.184368], "xyz": [-0.02245488873599999, 3.011388869166, 1.2085034785920001], "label": "H", "properties": {"magmom": 0.0}}, {"species": [{"element": "H", "occu": 1}], "abc": [0.974012, 0.462678, 0.815632], "xyz": [5.175706888735999, 1.506631130834, 5.346340521408], "label": "H", "properties": {"magmom": 0.0}}, {"species": [{"element": "H", "occu": 1}], "abc": [0.331122, 0.722895, 0.888142], "xyz": [1.2133974822900002, 2.9927489149069997, 5.821632259848], "label": "H", "properties": {"magmom": 0.0}}, {"species": [{"element": "H", "occu": 1}], "abc": [0.668878, 0.277105, 0.111858], "xyz": [3.9398545177099997, 1.525271085093, 0.733211740152], "label": "H", "properties": {"magmom": 0.0}}, {"species": [{"element": "H", "occu": 1}], "abc": [0.292907, 0.229539, 0.938391], "xyz": [0.959148904712, -0.13532199820799984, 6.151006616004], "label": "H", "properties": {"magmom": -0.0}}, {"species": [{"element": "H", "occu": 1}], "abc": [0.707093, 0.770461, 0.061609], "xyz": [4.194103095288, 4.653341998208, 0.403837383996], "label": "H", "properties": {"magmom": -0.0}}, {"species": [{"element": "H", "occu": 1}], "abc": [0.97184, 0.93724, 0.804821], "xyz": [5.152587304581001, 4.453479364861, 5.275476102924], "label": "H", "properties": {"magmom": -0.0}}, {"species": [{"element": "H", "occu": 1}], "abc": [0.02816, 0.06276, 0.195179], "xyz": [0.000664695419000022, 0.06454063513899999, 1.279367897076], "label": "H", "properties": {"magmom": -0.0}}]}}
{"formula": "LiBeH3", "spacegroup": "Cmcm", "formation_energy_per_atom": -0.3083285098386668, "crystal": {"@module": "pymatgen.core.structure", "@class": "Structure", "charge": null, "lattice": {"matrix": [[2.923457, -5.086562, 0.0], [2.923457, 5.086562, 0.0], [0.0, 0.0, 8.322584]], "a": 5.866831667151615, "b": 5.866831667151615, "c": 8.322584, "alpha": 90.0, "beta": 90.0, "gamma": 120.22448203673314, "volume": 247.51939548406978}, "sites": [{"species": [{"element": "Li", "occu": 1}], "abc": [0.5, 0.5, 0.5], "xyz": [2.923457, 0.0, 4.161292], "label": "Li", "properties": {"magmom": 0.0}}, {"species": [{"element": "Li", "occu": 1}], "abc": [0.171854, 0.828146, 0.5], "xyz": [2.9234570000000004, 3.338269948104, 4.161292], "label": "Li", "properties": {"magmom": 0.0}}, {"species": [{"element": "Li", "occu": 1}], "abc": [0.828146, 0.171854, 0.5], "xyz": [2.9234570000000004, -3.338269948104, 4.161292], "label": "Li", "properties": {"magmom": 0.0}}, {"species": [{"element": "Li", "occu": 1}], "abc": [0.5, 0.5, 0.0], "xyz": [2.923457, 0.0, 0.0], "label": "Li", "properties": {"magmom": 0.0}}, {"species": [{"element": "Li", "occu": 1}], "abc": [0.171854, 0.828146, 0.0], "xyz": [2.9234570000000004, 3.338269948104, 0.0], "label": "Li", "properties": {"magmom": 0.0}}, {"species": [{"element": "Li", "occu": 1}], "abc": [0.828146, 0.171854, 0.0], "xyz": [2.9234570000000004, -3.338269948104, 0.0], "label": "Li", "properties": {"magmom": 0.0}}, {"species": [{"element": "Be", "occu": 1}], "abc": [0.080394, 0.080394, 0.75], "xyz": [0.470056804116, 0.0, 6.241938000000001], "label": "Be", "properties": {"magmom": -0.0}}, {"species": [{"element": "Be", "occu": 1}], "abc": [0.834468, 0.589725, 0.75], "xyz": [4.163566995201, -1.2449004435659998, 6.241938000000001], "label": "Be", "properties": {"magmom": -0.0}}, {"species": [{"element": "Be", "occu": 1}], "abc": [0.589725, 0.834468, 0.75], "xyz": [4.163566995201, 1.2449004435659998, 6.241938000000001], "label": "Be", "properties": {"magmom": -0.0}}, {"species": [{"element": "Be", "occu": 1}], "abc": [0.919606, 0.919606, 0.25], "xyz": [5.376857195884, 0.0, 2.080646], "label": "Be", "properties": {"magmom": -0.0}}, {"species": [{"element": "Be", "occu": 1}], "abc": [0.410275, 0.165532, 0.25], "xyz": [1.683347004799, -1.2449004435660003, 2.080646], "label": "Be", "properties": {"magmom": -0.0}}, {"species": [{"element": "Be", "occu": 1}], "abc": [0.165532, 0.410275, 0.25], "xyz": [1.683347004799, 1.2449004435660003, 2.080646], "label": "Be", "properties": {"magmom": -0.0}}, {"species": [{"element": "H", "occu": 1}], "abc": [0.191604, 0.191604, 0.599226], "xyz": [1.120292110056, 0.0, 4.9871087199840005], "label": "H", "properties": {"magmom": 0.0}}, {"species": [{"element": "H", "occu": 1}], "abc": [0.83436, 0.477109, 0.60163], "xyz": [3.8340232283330002, -1.8171793610619997, 5.007116211920001], "label": "H", "properties": {"magmom": -0.0}}, {"species": [{"element": "H", "occu": 1}], "abc": [0.477109, 0.83436, 0.60163], "xyz": [3.8340232283330002, 1.8171793610619997, 5.007116211920001], "label": "H", "properties": {"magmom": -0.0}}, {"species": [{"element": "H", "occu": 1}], "abc": [0.590569, 0.590569, 0.75], "xyz": [3.453006154066, 0.0, 6.241938000000001], "label": "H", "properties": {"magmom": -0.0}}, {"species": [{"element": "H", "occu": 1}], "abc": [0.079218, 0.835673, 0.75], "xyz": [2.674644498187, 3.8477552577100003, 6.241938000000001], "label": "H", "properties": {"magmom": 0.0}}, {"species": [{"element": "H", "occu": 1}], "abc": [0.835673, 0.079218, 0.75], "xyz": [2.674644498187, -3.8477552577100003, 6.241938000000001], "label": "H", "properties": {"magmom": 0.0}}, {"species": [{"element": "H", "occu": 1}], "abc": [0.83436, 0.477109, 0.89837], "xyz": [3.8340232283330002, -1.8171793610619997, 7.476759788080001], "label": "H", "properties": {"magmom": -0.0}}, {"species": [{"element": "H", "occu": 1}], "abc": [0.477109, 0.83436, 0.89837], "xyz": [3.8340232283330002, 1.8171793610619997, 7.476759788080001], "label": "H", "properties": {"magmom": -0.0}}, {"species": [{"element": "H", "occu": 1}], "abc": [0.191604, 0.191604, 0.900774], "xyz": [1.120292110056, 0.0, 7.496767280016001], "label": "H", "properties": {"magmom": 0.0}}, {"species": [{"element": "H", "occu": 1}], "abc": [0.808396, 0.808396, 0.099226], "xyz": [4.726621889944, 0.0, 0.8258167199840001], "label": "H", "properties": {"magmom": 0.0}}, {"species": [{"element": "H", "occu": 1}], "abc": [0.522891, 0.16564, 0.10163], "xyz": [2.012890771667, -1.8171793610620002, 0.8458242119200001], "label": "H", "properties": {"magmom": -0.0}}, {"species": [{"element": "H", "occu": 1}], "abc": [0.16564, 0.522891, 0.10163], "xyz": [2.012890771667, 1.8171793610620002, 0.8458242119200001], "label": "H", "properties": {"magmom": -0.0}}, {"species": [{"element": "H", "occu": 1}], "abc": [0.409431, 0.409431, 0.25], "xyz": [2.3939078459339997, 0.0, 2.080646], "label": "H", "properties": {"magmom": -0.0}}, {"species": [{"element": "H", "occu": 1}], "abc": [0.164327, 0.920782, 0.25], "xyz": [3.172269501813, 3.8477552577100003, 2.080646], "label": "H", "properties": {"magmom": 0.0}}, {"species": [{"element": "H", "occu": 1}], "abc": [0.920782, 0.164327, 0.25], "xyz": [3.172269501813, -3.8477552577100003, 2.080646], "label": "H", "properties": {"magmom": 0.0}}, {"species": [{"element": "H", "occu": 1}], "abc": [0.522891, 0.16564, 0.39837], "xyz": [2.012890771667, -1.8171793610620002, 3.3154677880800003], "label": "H", "properties": {"magmom": -0.0}}, {"species": [{"element": "H", "occu": 1}], "abc": [0.16564, 0.522891, 0.39837], "xyz": [2.012890771667, 1.8171793610620002, 3.3154677880800003], "label": "H", "properties": {"magmom": -0.0}}, {"species": [{"element": "H", "occu": 1}], "abc": [0.808396, 0.808396, 0.400774], "xyz": [4.726621889944, 0.0, 3.3354752800160004], "label": "H", "properties": {"magmom": 0.0}}]}}
